  TITLE="VITESSE a 10m"
 VARIABLES="X","Y","Z"
 ZONE I=         201 J=         141F=POINT
   827475.000000000        1849625.00000000        6.81151627759928     
   827525.000000000        1849625.00000000        6.66452488929256     
   827575.000000000        1849625.00000000        6.48015624811624     
   827625.000000000        1849625.00000000        6.25863124013550     
   827675.000000000        1849625.00000000        6.00336280762707     
   827725.000000000        1849625.00000000        5.73283612185103     
   827775.000000000        1849625.00000000        5.48237293514405     
   827825.000000000        1849625.00000000        5.29154920604543     
   827875.000000000        1849625.00000000        5.19284007071275     
   827925.000000000        1849625.00000000        5.19799595998304     
   827975.000000000        1849625.00000000        5.31291859527322     
   828025.000000000        1849625.00000000        5.51072563280009     
   828075.000000000        1849625.00000000        5.74094495706064     
   828125.000000000        1849625.00000000        5.97359196798710     
   828175.000000000        1849625.00000000        6.16966790030063     
   828225.000000000        1849625.00000000        6.32497249005875     
   828275.000000000        1849625.00000000        6.42353578646527     
   828325.000000000        1849625.00000000        6.41952973355525     
   828375.000000000        1849625.00000000        6.30891765677759     
   828425.000000000        1849625.00000000        6.10351251329921     
   828475.000000000        1849625.00000000        5.81261524616932     
   828525.000000000        1849625.00000000        5.47926454918906     
   828575.000000000        1849625.00000000        5.16006589105217     
   828625.000000000        1849625.00000000        4.94827535612156     
   828675.000000000        1849625.00000000        4.95664099970938     
   828725.000000000        1849625.00000000        5.19377858596225     
   828775.000000000        1849625.00000000        5.61143974395164     
   828825.000000000        1849625.00000000        6.18156816673569     
   828875.000000000        1849625.00000000        6.74750213041834     
   828925.000000000        1849625.00000000        7.21237297981739     
   828975.000000000        1849625.00000000        7.56851061966620     
   829025.000000000        1849625.00000000        7.82854424526042     
   829075.000000000        1849625.00000000        7.92021369661198     
   829125.000000000        1849625.00000000        7.85149985671528     
   829175.000000000        1849625.00000000        7.73319338953837     
   829225.000000000        1849625.00000000        7.50059630962765     
   829275.000000000        1849625.00000000        7.19310572701389     
   829325.000000000        1849625.00000000        6.81524599702755     
   829375.000000000        1849625.00000000        6.32780001264262     
   829425.000000000        1849625.00000000        5.77429831234930     
   829475.000000000        1849625.00000000        5.16833222616348     
   829525.000000000        1849625.00000000        4.69938293821646     
   829575.000000000        1849625.00000000        4.53262098569911     
   829625.000000000        1849625.00000000        4.72251881944371     
   829675.000000000        1849625.00000000        5.03595413005321     
   829725.000000000        1849625.00000000        5.55995764372356     
   829775.000000000        1849625.00000000        6.57100669608546     
   829825.000000000        1849625.00000000        7.54525811354390     
   829875.000000000        1849625.00000000        8.28601713732237     
   829925.000000000        1849625.00000000        8.89853313754576     
   829975.000000000        1849625.00000000        9.26828339014297     
   830025.000000000        1849625.00000000        9.35419119967087     
   830075.000000000        1849625.00000000        9.66520211894195     
   830125.000000000        1849625.00000000        10.3219593585714     
   830175.000000000        1849625.00000000        11.0518206644878     
   830225.000000000        1849625.00000000        11.6181141757172     
   830275.000000000        1849625.00000000        11.7783300174515     
   830325.000000000        1849625.00000000        11.7805416683614     
   830375.000000000        1849625.00000000        11.7830800727144     
   830425.000000000        1849625.00000000        11.9600689797342     
   830475.000000000        1849625.00000000        12.1974897827381     
   830525.000000000        1849625.00000000        12.2685299037823     
   830575.000000000        1849625.00000000        12.2492569978754     
   830625.000000000        1849625.00000000        12.1113252784326     
   830675.000000000        1849625.00000000        11.8450735751197     
   830725.000000000        1849625.00000000        11.4787875666379     
   830775.000000000        1849625.00000000        10.9164428730242     
   830825.000000000        1849625.00000000        10.1612046529927     
   830875.000000000        1849625.00000000        9.35300769806162     
   830925.000000000        1849625.00000000        8.76540957400166     
   830975.000000000        1849625.00000000        8.75886528038878     
   831025.000000000        1849625.00000000        9.44507008973464     
   831075.000000000        1849625.00000000        10.4839288914033     
   831125.000000000        1849625.00000000        11.3915466904192     
   831175.000000000        1849625.00000000        11.9287283898997     
   831225.000000000        1849625.00000000        12.1868907027182     
   831275.000000000        1849625.00000000        12.3742322994196     
   831325.000000000        1849625.00000000        12.4324506031595     
   831375.000000000        1849625.00000000        12.1544196488356     
   831425.000000000        1849625.00000000        11.6834017734562     
   831475.000000000        1849625.00000000        11.2548320733807     
   831525.000000000        1849625.00000000        10.7055096095422     
   831575.000000000        1849625.00000000        9.93320411549063     
   831625.000000000        1849625.00000000        9.13456775113087     
   831675.000000000        1849625.00000000        8.54826344937964     
   831725.000000000        1849625.00000000        8.40211878040295     
   831775.000000000        1849625.00000000        8.70325375937069     
   831825.000000000        1849625.00000000        9.29597773233133     
   831875.000000000        1849625.00000000        9.98824759404772     
   831925.000000000        1849625.00000000        10.5232721622127     
   831975.000000000        1849625.00000000        10.8420533571829     
   832025.000000000        1849625.00000000        11.0249332877800     
   832075.000000000        1849625.00000000        11.0987269990752     
   832125.000000000        1849625.00000000        11.0509581937495     
   832175.000000000        1849625.00000000        10.9395645708593     
   832225.000000000        1849625.00000000        10.8527418194666     
   832275.000000000        1849625.00000000        10.8929970164322     
   832325.000000000        1849625.00000000        11.0882621271325     
   832375.000000000        1849625.00000000        11.2851772250151     
   832425.000000000        1849625.00000000        11.4719536697112     
   832475.000000000        1849625.00000000        11.6405014067264     
   832525.000000000        1849625.00000000        11.6706481825133     
   832575.000000000        1849625.00000000        11.6195876002550     
   832625.000000000        1849625.00000000        11.5584627438081     
   832675.000000000        1849625.00000000        11.4624353869498     
   832725.000000000        1849625.00000000        11.3143351992064     
   832775.000000000        1849625.00000000        11.1566405785971     
   832825.000000000        1849625.00000000        11.0098996362365     
   832875.000000000        1849625.00000000        10.9189296636621     
   832925.000000000        1849625.00000000        10.8857220706759     
   832975.000000000        1849625.00000000        10.8652819567649     
   833025.000000000        1849625.00000000        10.9186610900788     
   833075.000000000        1849625.00000000        10.9879541771888     
   833125.000000000        1849625.00000000        11.0161066171311     
   833175.000000000        1849625.00000000        11.0557379220023     
   833225.000000000        1849625.00000000        11.1184475984735     
   833275.000000000        1849625.00000000        11.2116698131902     
   833325.000000000        1849625.00000000        11.2891087336424     
   833375.000000000        1849625.00000000        11.3574545123456     
   833425.000000000        1849625.00000000        11.4803721629571     
   833475.000000000        1849625.00000000        11.5892233562047     
   833525.000000000        1849625.00000000        11.6206946866356     
   833575.000000000        1849625.00000000        11.5704264398509     
   833625.000000000        1849625.00000000        11.4518007754239     
   833675.000000000        1849625.00000000        11.2930451606287     
   833725.000000000        1849625.00000000        11.1861725804674     
   833775.000000000        1849625.00000000        11.1843663208963     
   833825.000000000        1849625.00000000        11.2384832161640     
   833875.000000000        1849625.00000000        11.2778409724557     
   833925.000000000        1849625.00000000        11.2425054591937     
   833975.000000000        1849625.00000000        11.1674237852783     
   834025.000000000        1849625.00000000        11.0542925599063     
   834075.000000000        1849625.00000000        10.9397407647531     
   834125.000000000        1849625.00000000        10.9227746017209     
   834175.000000000        1849625.00000000        10.9831957553346     
   834225.000000000        1849625.00000000        11.0937778957396     
   834275.000000000        1849625.00000000        11.2519673390923     
   834325.000000000        1849625.00000000        11.4681395614110     
   834375.000000000        1849625.00000000        11.7455789980741     
   834425.000000000        1849625.00000000        11.9821986713624     
   834475.000000000        1849625.00000000        12.0260525526874     
   834525.000000000        1849625.00000000        11.9000539914742     
   834575.000000000        1849625.00000000        11.7112296536273     
   834625.000000000        1849625.00000000        11.5760388734662     
   834675.000000000        1849625.00000000        11.4673238813596     
   834725.000000000        1849625.00000000        11.3424452830948     
   834775.000000000        1849625.00000000        11.1792039967075     
   834825.000000000        1849625.00000000        10.9399214805226     
   834875.000000000        1849625.00000000        10.7306649374584     
   834925.000000000        1849625.00000000        10.5590038355898     
   834975.000000000        1849625.00000000        10.5014645169138     
   835025.000000000        1849625.00000000        10.5600804921175     
   835075.000000000        1849625.00000000        10.6585303395919     
   835125.000000000        1849625.00000000        10.8315723696978     
   835175.000000000        1849625.00000000        11.0654067254665     
   835225.000000000        1849625.00000000        11.2944112285679     
   835275.000000000        1849625.00000000        11.4244949560145     
   835325.000000000        1849625.00000000        11.4572737594944     
   835375.000000000        1849625.00000000        11.4432552186867     
   835425.000000000        1849625.00000000        11.3519803558674     
   835475.000000000        1849625.00000000        11.2189545413109     
   835525.000000000        1849625.00000000        11.1563814922223     
   835575.000000000        1849625.00000000        11.2362467488036     
   835625.000000000        1849625.00000000        11.3431735418268     
   835675.000000000        1849625.00000000        11.4265124163062     
   835725.000000000        1849625.00000000        11.5675980652856     
   835775.000000000        1849625.00000000        11.7113946650260     
   835825.000000000        1849625.00000000        11.7864622766969     
   835875.000000000        1849625.00000000        11.7429898237204     
   835925.000000000        1849625.00000000        11.5589629725162     
   835975.000000000        1849625.00000000        11.3775896392865     
   836025.000000000        1849625.00000000        11.2779107994344     
   836075.000000000        1849625.00000000        11.2763629331447     
   836125.000000000        1849625.00000000        11.4289065531222     
   836175.000000000        1849625.00000000        11.6842658733872     
   836225.000000000        1849625.00000000        12.0032746365315     
   836275.000000000        1849625.00000000        12.3852694762771     
   836325.000000000        1849625.00000000        12.7627644732636     
   836375.000000000        1849625.00000000        13.0605589849746     
   836425.000000000        1849625.00000000        13.2799416414380     
   836475.000000000        1849625.00000000        13.4017423494111     
   836525.000000000        1849625.00000000        13.4080729413290     
   836575.000000000        1849625.00000000        13.3706714865036     
   836625.000000000        1849625.00000000        13.3224993525990     
   836675.000000000        1849625.00000000        13.4983421945067     
   836725.000000000        1849625.00000000        13.5669898282559     
   836775.000000000        1849625.00000000        13.4519561774487     
   836825.000000000        1849625.00000000        13.2518283266876     
   836875.000000000        1849625.00000000        12.8161225025356     
   836925.000000000        1849625.00000000        12.4392048781263     
   836975.000000000        1849625.00000000        12.5491284557933     
   837025.000000000        1849625.00000000        12.9615384889295     
   837075.000000000        1849625.00000000        13.6335883024243     
   837125.000000000        1849625.00000000        14.3486976412495     
   837175.000000000        1849625.00000000        14.4061881842492     
   837225.000000000        1849625.00000000        14.0984135632347     
   837275.000000000        1849625.00000000        13.6858261350932     
   837325.000000000        1849625.00000000        13.2694696578273     
   837375.000000000        1849625.00000000        13.0026148524056     
   837425.000000000        1849625.00000000        12.7816839657378     
   837475.000000000        1849625.00000000        12.5089042285885     
   827475.000000000        1849575.00000000        6.92850864183628     
   827525.000000000        1849575.00000000        6.80270725520362     
   827575.000000000        1849575.00000000        6.64312652295589     
   827625.000000000        1849575.00000000        6.44638169828626     
   827675.000000000        1849575.00000000        6.21249362172711     
   827725.000000000        1849575.00000000        5.95171639109257     
   827775.000000000        1849575.00000000        5.68993233703179     
   827825.000000000        1849575.00000000        5.45969413062673     
   827875.000000000        1849575.00000000        5.30034951677717     
   827925.000000000        1849575.00000000        5.23900801679097     
   827975.000000000        1849575.00000000        5.28771425097839     
   828025.000000000        1849575.00000000        5.42446089487241     
   828075.000000000        1849575.00000000        5.62955646565518     
   828125.000000000        1849575.00000000        5.86581699339487     
   828175.000000000        1849575.00000000        6.07885227654037     
   828225.000000000        1849575.00000000        6.26987216775589     
   828275.000000000        1849575.00000000        6.39985757654028     
   828325.000000000        1849575.00000000        6.43757601896863     
   828375.000000000        1849575.00000000        6.40293815369163     
   828425.000000000        1849575.00000000        6.26304598418373     
   828475.000000000        1849575.00000000        5.99892598720804     
   828525.000000000        1849575.00000000        5.70522041642564     
   828575.000000000        1849575.00000000        5.41517349675890     
   828625.000000000        1849575.00000000        5.18047295138195     
   828675.000000000        1849575.00000000        5.08570988161928     
   828725.000000000        1849575.00000000        5.16321111325113     
   828775.000000000        1849575.00000000        5.45347778944776     
   828825.000000000        1849575.00000000        5.93162852849030     
   828875.000000000        1849575.00000000        6.47302896641132     
   828925.000000000        1849575.00000000        7.01355295125088     
   828975.000000000        1849575.00000000        7.50943739570415     
   829025.000000000        1849575.00000000        7.85724538244797     
   829075.000000000        1849575.00000000        7.97554543589340     
   829125.000000000        1849575.00000000        7.95541639387908     
   829175.000000000        1849575.00000000        7.86922467591312     
   829225.000000000        1849575.00000000        7.68013606650299     
   829275.000000000        1849575.00000000        7.44175597557458     
   829325.000000000        1849575.00000000        7.11382555310432     
   829375.000000000        1849575.00000000        6.69060535377779     
   829425.000000000        1849575.00000000        6.19902331016750     
   829475.000000000        1849575.00000000        5.60431949481826     
   829525.000000000        1849575.00000000        5.01391384050424     
   829575.000000000        1849575.00000000        4.64233572676514     
   829625.000000000        1849575.00000000        4.57760898286431     
   829675.000000000        1849575.00000000        4.76684591737556     
   829725.000000000        1849575.00000000        5.30263123364241     
   829775.000000000        1849575.00000000        6.04831563329825     
   829825.000000000        1849575.00000000        6.61463929477640     
   829875.000000000        1849575.00000000        6.94760915711297     
   829925.000000000        1849575.00000000        7.40587773326025     
   829975.000000000        1849575.00000000        7.56250388429652     
   830025.000000000        1849575.00000000        7.44262487298668     
   830075.000000000        1849575.00000000        8.24231338884903     
   830125.000000000        1849575.00000000        9.61411488385696     
   830175.000000000        1849575.00000000        10.5646396057793     
   830225.000000000        1849575.00000000        10.8881780385885     
   830275.000000000        1849575.00000000        10.9759889303880     
   830325.000000000        1849575.00000000        11.2945622314457     
   830375.000000000        1849575.00000000        11.7808621925562     
   830425.000000000        1849575.00000000        12.1776807315679     
   830475.000000000        1849575.00000000        12.4045698031008     
   830525.000000000        1849575.00000000        12.4652713167424     
   830575.000000000        1849575.00000000        12.3711125611240     
   830625.000000000        1849575.00000000        12.0944801459178     
   830675.000000000        1849575.00000000        11.7161480444726     
   830725.000000000        1849575.00000000        11.2881726599127     
   830775.000000000        1849575.00000000        10.7245431138114     
   830825.000000000        1849575.00000000        10.0552664808050     
   830875.000000000        1849575.00000000        9.30589512083604     
   830925.000000000        1849575.00000000        8.60415539143733     
   830975.000000000        1849575.00000000        8.35540280297725     
   831025.000000000        1849575.00000000        8.87801492452001     
   831075.000000000        1849575.00000000        9.95141100548058     
   831125.000000000        1849575.00000000        11.0228124360346     
   831175.000000000        1849575.00000000        11.7784953623118     
   831225.000000000        1849575.00000000        12.2616460966707     
   831275.000000000        1849575.00000000        12.5651332265122     
   831325.000000000        1849575.00000000        12.6152621851470     
   831375.000000000        1849575.00000000        12.4110075739240     
   831425.000000000        1849575.00000000        12.1195670714758     
   831475.000000000        1849575.00000000        11.7703792632183     
   831525.000000000        1849575.00000000        11.1862956334973     
   831575.000000000        1849575.00000000        10.3904172197270     
   831625.000000000        1849575.00000000        9.56665887339985     
   831675.000000000        1849575.00000000        8.87036915804523     
   831725.000000000        1849575.00000000        8.53650431968496     
   831775.000000000        1849575.00000000        8.62410047483214     
   831825.000000000        1849575.00000000        9.04387217954787     
   831875.000000000        1849575.00000000        9.64105772205519     
   831925.000000000        1849575.00000000        10.1912013521469     
   831975.000000000        1849575.00000000        10.6313213195727     
   832025.000000000        1849575.00000000        10.9028011079722     
   832075.000000000        1849575.00000000        11.0032781024566     
   832125.000000000        1849575.00000000        10.9801122489709     
   832175.000000000        1849575.00000000        10.8681729835332     
   832225.000000000        1849575.00000000        10.7432349411153     
   832275.000000000        1849575.00000000        10.7355148921698     
   832325.000000000        1849575.00000000        10.8763049791738     
   832375.000000000        1849575.00000000        11.0662651332778     
   832425.000000000        1849575.00000000        11.3136540958260     
   832475.000000000        1849575.00000000        11.5209534327676     
   832525.000000000        1849575.00000000        11.5835583479344     
   832575.000000000        1849575.00000000        11.6088833657678     
   832625.000000000        1849575.00000000        11.6150096857471     
   832675.000000000        1849575.00000000        11.5489501687383     
   832725.000000000        1849575.00000000        11.4130495486526     
   832775.000000000        1849575.00000000        11.2607245326400     
   832825.000000000        1849575.00000000        11.1234953139739     
   832875.000000000        1849575.00000000        11.0291123849565     
   832925.000000000        1849575.00000000        10.9413880746457     
   832975.000000000        1849575.00000000        10.8706579837653     
   833025.000000000        1849575.00000000        10.8917181381084     
   833075.000000000        1849575.00000000        10.9572652153719     
   833125.000000000        1849575.00000000        11.0100045413251     
   833175.000000000        1849575.00000000        11.0519908161381     
   833225.000000000        1849575.00000000        11.1001412603624     
   833275.000000000        1849575.00000000        11.1261179213596     
   833325.000000000        1849575.00000000        11.1501648418308     
   833375.000000000        1849575.00000000        11.2308318926071     
   833425.000000000        1849575.00000000        11.3941381420448     
   833475.000000000        1849575.00000000        11.5200236110869     
   833525.000000000        1849575.00000000        11.5623423232492     
   833575.000000000        1849575.00000000        11.5398130400800     
   833625.000000000        1849575.00000000        11.4076591814447     
   833675.000000000        1849575.00000000        11.2778687702952     
   833725.000000000        1849575.00000000        11.2380374176277     
   833775.000000000        1849575.00000000        11.2304450490619     
   833825.000000000        1849575.00000000        11.2496722174470     
   833875.000000000        1849575.00000000        11.2586024887639     
   833925.000000000        1849575.00000000        11.2376004556133     
   833975.000000000        1849575.00000000        11.2317694509814     
   834025.000000000        1849575.00000000        11.1673997868797     
   834075.000000000        1849575.00000000        11.0578502431531     
   834125.000000000        1849575.00000000        10.9782033593844     
   834175.000000000        1849575.00000000        10.9590795690149     
   834225.000000000        1849575.00000000        10.9990065460477     
   834275.000000000        1849575.00000000        11.1477655608647     
   834325.000000000        1849575.00000000        11.4328778966628     
   834375.000000000        1849575.00000000        11.7663946049756     
   834425.000000000        1849575.00000000        12.0192865844858     
   834475.000000000        1849575.00000000        12.1233454128801     
   834525.000000000        1849575.00000000        12.0770437193876     
   834575.000000000        1849575.00000000        11.8959928127080     
   834625.000000000        1849575.00000000        11.7441384528623     
   834675.000000000        1849575.00000000        11.6537323205915     
   834725.000000000        1849575.00000000        11.5395453116663     
   834775.000000000        1849575.00000000        11.3274694879307     
   834825.000000000        1849575.00000000        11.0505569995363     
   834875.000000000        1849575.00000000        10.8027720979386     
   834925.000000000        1849575.00000000        10.5802353470989     
   834975.000000000        1849575.00000000        10.4603855091483     
   835025.000000000        1849575.00000000        10.4076752927827     
   835075.000000000        1849575.00000000        10.4502119117270     
   835125.000000000        1849575.00000000        10.6356400841698     
   835175.000000000        1849575.00000000        10.9055238296929     
   835225.000000000        1849575.00000000        11.2061915921512     
   835275.000000000        1849575.00000000        11.4272592077016     
   835325.000000000        1849575.00000000        11.5473202519026     
   835375.000000000        1849575.00000000        11.6045960291602     
   835425.000000000        1849575.00000000        11.5938865355842     
   835475.000000000        1849575.00000000        11.5703455436733     
   835525.000000000        1849575.00000000        11.5739301881427     
   835575.000000000        1849575.00000000        11.6353469222022     
   835625.000000000        1849575.00000000        11.6913633507816     
   835675.000000000        1849575.00000000        11.6867631104596     
   835725.000000000        1849575.00000000        11.7399758517639     
   835775.000000000        1849575.00000000        11.8413302039931     
   835825.000000000        1849575.00000000        11.8928230458542     
   835875.000000000        1849575.00000000        11.8490695837268     
   835925.000000000        1849575.00000000        11.7255413947502     
   835975.000000000        1849575.00000000        11.5949320394731     
   836025.000000000        1849575.00000000        11.5220500346076     
   836075.000000000        1849575.00000000        11.5518734411350     
   836125.000000000        1849575.00000000        11.6765841751773     
   836175.000000000        1849575.00000000        11.8580066200015     
   836225.000000000        1849575.00000000        12.0773606802149     
   836275.000000000        1849575.00000000        12.3251513986644     
   836325.000000000        1849575.00000000        12.5693752032470     
   836375.000000000        1849575.00000000        12.7743148544257     
   836425.000000000        1849575.00000000        12.9163633039645     
   836475.000000000        1849575.00000000        13.0213394856290     
   836525.000000000        1849575.00000000        13.0560795417307     
   836575.000000000        1849575.00000000        13.0234671266910     
   836625.000000000        1849575.00000000        13.0723233206649     
   836675.000000000        1849575.00000000        13.3740963059191     
   836725.000000000        1849575.00000000        13.6228080805684     
   836775.000000000        1849575.00000000        13.6843214300162     
   836825.000000000        1849575.00000000        13.5445590552074     
   836875.000000000        1849575.00000000        13.2243087153923     
   836925.000000000        1849575.00000000        13.2471450509157     
   836975.000000000        1849575.00000000        13.6650234540596     
   837025.000000000        1849575.00000000        14.1889002392715     
   837075.000000000        1849575.00000000        14.8711966566245     
   837125.000000000        1849575.00000000        15.1455320144259     
   837175.000000000        1849575.00000000        14.7243964222647     
   837225.000000000        1849575.00000000        14.2471756148368     
   837275.000000000        1849575.00000000        13.8073115775664     
   837325.000000000        1849575.00000000        13.4313356744592     
   837375.000000000        1849575.00000000        13.1652503964034     
   837425.000000000        1849575.00000000        12.8867802417827     
   837475.000000000        1849575.00000000        12.5916849547628     
   827475.000000000        1849525.00000000        7.03368807952130     
   827525.000000000        1849525.00000000        6.92630644716215     